7
Atoms. MC Step: 0 Box Period 100. 100. 100.
O    0.00000000   0.00000000   0.00000000
O    1.84000000   0.00000000   0.00000000
O    -1.84000000   0.00000000   0.00000000
O    0.00000000   1.84000000   0.00000000
O    0.00000000   -1.84000000   0.00000000
O    0.00000000   0.00000000   1.25000000
O    0.00000000   0.00000000   -1.25000000
